h 1 0 3 tcp 40 ------- 0 0.0 2.0 0 0
+ 1.04 0 3 tcp 40 ------- 0 0.0 2.0 0 0
- 1.04 0 3 tcp 40 ------- 0 0.0 2.0 0 0
r 1.082564 3 2 tcp 40 ------- 0 0.0 2.0 0 0
h 1.082564 2 3 ack 40 ------- 0 2.0 0.0 0 1
+ 1.122564 2 3 ack 40 ------- 0 2.0 0.0 0 1
- 1.122564 2 3 ack 40 ------- 0 2.0 0.0 0 1
r 1.165128 3 0 ack 40 ------- 0 2.0 0.0 0 1
h 1.165128 0 3 tcp 1040 ------- 0 0.0 2.0 1 2
h 1.165128 0 3 tcp 1040 ------- 0 0.0 2.0 2 3
+ 1.205128 0 3 tcp 1040 ------- 0 0.0 2.0 1 2
- 1.205128 0 3 tcp 1040 ------- 0 0.0 2.0 1 2
+ 1.205128 0 3 tcp 1040 ------- 0 0.0 2.0 2 3
- 1.247768 0 3 tcp 1040 ------- 0 0.0 2.0 2 3
r 1.287292 3 2 tcp 1040 ------- 0 0.0 2.0 1 2
h 1.287292 2 3 ack 40 ------- 0 2.0 0.0 1 4
+ 1.327292 2 3 ack 40 ------- 0 2.0 0.0 1 4
- 1.327292 2 3 ack 40 ------- 0 2.0 0.0 1 4
r 1.329932 3 2 tcp 1040 ------- 0 0.0 2.0 2 3
h 1.329932 2 3 ack 40 ------- 0 2.0 0.0 2 5
r 1.369856 3 0 ack 40 ------- 0 2.0 0.0 1 4
h 1.369856 0 3 tcp 1040 ------- 0 0.0 2.0 3 6
h 1.369856 0 3 tcp 1040 ------- 0 0.0 2.0 4 7
+ 1.369932 2 3 ack 40 ------- 0 2.0 0.0 2 5
- 1.369932 2 3 ack 40 ------- 0 2.0 0.0 2 5
+ 1.409856 0 3 tcp 1040 ------- 0 0.0 2.0 3 6
- 1.409856 0 3 tcp 1040 ------- 0 0.0 2.0 3 6
+ 1.409856 0 3 tcp 1040 ------- 0 0.0 2.0 4 7
r 1.412496 3 0 ack 40 ------- 0 2.0 0.0 2 5
h 1.412496 0 3 tcp 1040 ------- 0 0.0 2.0 5 8
h 1.412496 0 3 tcp 1040 ------- 0 0.0 2.0 6 9
+ 1.452496 0 3 tcp 1040 ------- 0 0.0 2.0 5 8
+ 1.452496 0 3 tcp 1040 ------- 0 0.0 2.0 6 9
- 1.452496 0 3 tcp 1040 ------- 0 0.0 2.0 4 7
r 1.49202 3 2 tcp 1040 ------- 0 0.0 2.0 3 6
h 1.49202 2 3 ack 40 ------- 0 2.0 0.0 3 10
- 1.495136 0 3 tcp 1040 ------- 0 0.0 2.0 5 8
+ 1.53202 2 3 ack 40 ------- 0 2.0 0.0 3 10
- 1.53202 2 3 ack 40 ------- 0 2.0 0.0 3 10
r 1.53466 3 2 tcp 1040 ------- 0 0.0 2.0 4 7
h 1.53466 2 3 ack 40 ------- 0 2.0 0.0 4 11
- 1.537776 0 3 tcp 1040 ------- 0 0.0 2.0 6 9
+ 1.57466 2 3 ack 40 ------- 0 2.0 0.0 4 11
- 1.57466 2 3 ack 40 ------- 0 2.0 0.0 4 11
r 1.5773 3 2 tcp 1040 ------- 0 0.0 2.0 5 8
h 1.5773 2 3 ack 40 ------- 0 2.0 0.0 5 12
r 1.580984 3 0 ack 40 ------- 0 2.0 0.0 3 10
h 1.580984 0 3 tcp 1040 ------- 0 0.0 2.0 7 13
h 1.580984 0 3 tcp 1040 ------- 0 0.0 2.0 8 14
+ 1.6173 2 3 ack 40 ------- 0 2.0 0.0 5 12
- 1.6173 2 3 ack 40 ------- 0 2.0 0.0 5 12
+ 1.620984 0 3 tcp 1040 ------- 0 0.0 2.0 7 13
- 1.620984 0 3 tcp 1040 ------- 0 0.0 2.0 7 13
+ 1.620984 0 3 tcp 1040 ------- 0 0.0 2.0 8 14
r 1.623628 3 2 tcp 1040 ------- 0 0.0 2.0 6 9
h 1.623628 2 3 ack 40 ------- 0 2.0 0.0 6 15
r 1.626672 3 0 ack 40 ------- 0 2.0 0.0 4 11
h 1.626672 0 3 tcp 1040 ------- 0 0.0 2.0 9 16
h 1.626672 0 3 tcp 1040 ------- 0 0.0 2.0 10 17
r 1.659864 3 0 ack 40 ------- 0 2.0 0.0 5 12
h 1.659864 0 3 tcp 1040 ------- 0 0.0 2.0 11 18
h 1.659864 0 3 tcp 1040 ------- 0 0.0 2.0 12 19
- 1.663624 0 3 tcp 1040 ------- 0 0.0 2.0 8 14
+ 1.663628 2 3 ack 40 ------- 0 2.0 0.0 6 15
- 1.663628 2 3 ack 40 ------- 0 2.0 0.0 6 15
+ 1.666672 0 3 tcp 1040 ------- 0 0.0 2.0 9 16
+ 1.666672 0 3 tcp 1040 ------- 0 0.0 2.0 10 17
+ 1.699864 0 3 tcp 1040 ------- 0 0.0 2.0 11 18
+ 1.699864 0 3 tcp 1040 ------- 0 0.0 2.0 12 19
r 1.703148 3 2 tcp 1040 ------- 0 0.0 2.0 7 13
h 1.703148 2 3 ack 40 ------- 0 2.0 0.0 7 20
- 1.706912 0 3 tcp 1040 ------- 0 0.0 2.0 9 16
+ 1.743148 2 3 ack 40 ------- 0 2.0 0.0 7 20
r 1.746436 3 2 tcp 1040 ------- 0 0.0 2.0 8 14
h 1.746436 2 3 ack 40 ------- 0 2.0 0.0 8 21
- 1.75276 0 3 tcp 1040 ------- 0 0.0 2.0 10 17
+ 1.786436 2 3 ack 40 ------- 0 2.0 0.0 8 21
r 1.792284 3 2 tcp 1040 ------- 0 0.0 2.0 9 16
h 1.792284 2 3 ack 40 ------- 0 2.0 0.0 9 22
- 1.796048 0 3 tcp 1040 ------- 0 0.0 2.0 11 18
+ 1.832284 2 3 ack 40 ------- 0 2.0 0.0 9 22
r 1.835572 3 2 tcp 1040 ------- 0 0.0 2.0 10 17
h 1.835572 2 3 ack 40 ------- 0 2.0 0.0 10 23
- 1.841896 0 3 tcp 1040 ------- 0 0.0 2.0 12 19
+ 1.875572 2 3 ack 40 ------- 0 2.0 0.0 10 23
r 1.88142 3 2 tcp 1040 ------- 0 0.0 2.0 11 18
h 1.88142 2 3 ack 40 ------- 0 2.0 0.0 11 24
- 1.90702 2 3 ack 40 ------- 0 2.0 0.0 7 20
- 1.91006 2 3 ack 40 ------- 0 2.0 0.0 8 21
- 1.9131 2 3 ack 40 ------- 0 2.0 0.0 9 22
- 1.91614 2 3 ack 40 ------- 0 2.0 0.0 10 23
+ 1.92142 2 3 ack 40 ------- 0 2.0 0.0 11 24
- 1.92142 2 3 ack 40 ------- 0 2.0 0.0 11 24
r 1.924708 3 2 tcp 1040 ------- 0 0.0 2.0 12 19
h 1.924708 2 3 ack 40 ------- 0 2.0 0.0 12 25
r 1.946544 3 0 ack 40 ------- 0 2.0 0.0 6 15
h 1.946544 0 3 tcp 1040 ------- 0 0.0 2.0 13 26
h 1.946544 0 3 tcp 1040 ------- 0 0.0 2.0 14 27
r 1.949584 3 0 ack 40 ------- 0 2.0 0.0 7 20
h 1.949584 0 3 tcp 1040 ------- 0 0.0 2.0 15 28
h 1.949584 0 3 tcp 1040 ------- 0 0.0 2.0 16 29
r 1.952624 3 0 ack 40 ------- 0 2.0 0.0 8 21
h 1.952624 0 3 tcp 1040 ------- 0 0.0 2.0 17 30
h 1.952624 0 3 tcp 1040 ------- 0 0.0 2.0 18 31
r 1.955664 3 0 ack 40 ------- 0 2.0 0.0 9 22
h 1.955664 0 3 tcp 1040 ------- 0 0.0 2.0 19 32
h 1.955664 0 3 tcp 1040 ------- 0 0.0 2.0 20 33
r 1.958704 3 0 ack 40 ------- 0 2.0 0.0 10 23
h 1.958704 0 3 tcp 1040 ------- 0 0.0 2.0 21 34
h 1.958704 0 3 tcp 1040 ------- 0 0.0 2.0 22 35
r 1.963984 3 0 ack 40 ------- 0 2.0 0.0 11 24
h 1.963984 0 3 tcp 1040 ------- 0 0.0 2.0 23 36
h 1.963984 0 3 tcp 1040 ------- 0 0.0 2.0 24 37
+ 1.964708 2 3 ack 40 ------- 0 2.0 0.0 12 25
- 1.964708 2 3 ack 40 ------- 0 2.0 0.0 12 25
+ 1.986544 0 3 tcp 1040 ------- 0 0.0 2.0 13 26
- 1.986544 0 3 tcp 1040 ------- 0 0.0 2.0 13 26
+ 1.986544 0 3 tcp 1040 ------- 0 0.0 2.0 14 27
+ 1.989584 0 3 tcp 1040 ------- 0 0.0 2.0 15 28
+ 1.989584 0 3 tcp 1040 ------- 0 0.0 2.0 16 29
+ 1.992624 0 3 tcp 1040 ------- 0 0.0 2.0 17 30
+ 1.992624 0 3 tcp 1040 ------- 0 0.0 2.0 18 31
+ 1.995664 0 3 tcp 1040 ------- 0 0.0 2.0 19 32
+ 1.995664 0 3 tcp 1040 ------- 0 0.0 2.0 20 33
+ 1.998704 0 3 tcp 1040 ------- 0 0.0 2.0 21 34
+ 1.998704 0 3 tcp 1040 ------- 0 0.0 2.0 22 35
+ 2.003984 0 3 tcp 1040 ------- 0 0.0 2.0 23 36
+ 2.003984 0 3 tcp 1040 ------- 0 0.0 2.0 24 37
r 2.007272 3 0 ack 40 ------- 0 2.0 0.0 12 25
h 2.007272 0 3 tcp 1040 ------- 0 0.0 2.0 25 38
h 2.007272 0 3 tcp 1040 ------- 0 0.0 2.0 26 39
- 2.029184 0 3 tcp 1040 ------- 0 0.0 2.0 14 27
+ 2.047272 0 3 tcp 1040 ------- 0 0.0 2.0 25 38
+ 2.047272 0 3 tcp 1040 ------- 0 0.0 2.0 26 39
r 2.068708 3 2 tcp 1040 ------- 0 0.0 2.0 13 26
h 2.068708 2 3 ack 40 ------- 0 2.0 0.0 13 40
- 2.071824 0 3 tcp 1040 ------- 0 0.0 2.0 15 28
+ 2.108708 2 3 ack 40 ------- 0 2.0 0.0 13 40
- 2.108708 2 3 ack 40 ------- 0 2.0 0.0 13 40
r 2.111348 3 2 tcp 1040 ------- 0 0.0 2.0 14 27
h 2.111348 2 3 ack 40 ------- 0 2.0 0.0 14 41
- 2.114464 0 3 tcp 1040 ------- 0 0.0 2.0 16 29
+ 2.151348 2 3 ack 40 ------- 0 2.0 0.0 14 41
r 2.153988 3 2 tcp 1040 ------- 0 0.0 2.0 15 28
h 2.153988 2 3 ack 40 ------- 0 2.0 0.0 15 42
- 2.157752 0 3 tcp 1040 ------- 0 0.0 2.0 17 30
+ 2.193988 2 3 ack 40 ------- 0 2.0 0.0 15 42
r 2.197276 3 2 tcp 1040 ------- 0 0.0 2.0 16 29
h 2.197276 2 3 ack 40 ------- 0 2.0 0.0 16 43
- 2.2036 0 3 tcp 1040 ------- 0 0.0 2.0 18 31
- 2.210492 2 3 ack 40 ------- 0 2.0 0.0 14 41
- 2.21418 2 3 ack 40 ------- 0 2.0 0.0 15 42
+ 2.237276 2 3 ack 40 ------- 0 2.0 0.0 16 43
- 2.237276 2 3 ack 40 ------- 0 2.0 0.0 16 43
r 2.243124 3 2 tcp 1040 ------- 0 0.0 2.0 17 30
h 2.243124 2 3 ack 40 ------- 0 2.0 0.0 17 44
r 2.250016 3 0 ack 40 ------- 0 2.0 0.0 13 40
h 2.250016 0 3 tcp 1040 ------- 0 0.0 2.0 27 45
h 2.250016 0 3 tcp 1040 ------- 0 0.0 2.0 28 46
r 2.253704 3 0 ack 40 ------- 0 2.0 0.0 14 41
h 2.253704 0 3 tcp 1040 ------- 0 0.0 2.0 29 47
h 2.253704 0 3 tcp 1040 ------- 0 0.0 2.0 30 48
r 2.259952 3 0 ack 40 ------- 0 2.0 0.0 15 42
h 2.259952 0 3 tcp 1040 ------- 0 0.0 2.0 31 49
h 2.259952 0 3 tcp 1040 ------- 0 0.0 2.0 32 50
r 2.27984 3 0 ack 40 ------- 0 2.0 0.0 16 43
h 2.27984 0 3 tcp 1040 ------- 0 0.0 2.0 33 51
h 2.27984 0 3 tcp 1040 ------- 0 0.0 2.0 34 52
+ 2.283124 2 3 ack 40 ------- 0 2.0 0.0 17 44
- 2.283124 2 3 ack 40 ------- 0 2.0 0.0 17 44
+ 2.290016 0 3 tcp 1040 ------- 0 0.0 2.0 27 45
+ 2.290016 0 3 tcp 1040 ------- 0 0.0 2.0 28 46
- 2.290744 0 3 tcp 1040 ------- 0 0.0 2.0 19 32
+ 2.293704 0 3 tcp 1040 ------- 0 0.0 2.0 29 47
+ 2.293704 0 3 tcp 1040 ------- 0 0.0 2.0 30 48
+ 2.299952 0 3 tcp 1040 ------- 0 0.0 2.0 31 49
+ 2.299952 0 3 tcp 1040 ------- 0 0.0 2.0 32 50
+ 2.31984 0 3 tcp 1040 ------- 0 0.0 2.0 33 51
+ 2.31984 0 3 tcp 1040 ------- 0 0.0 2.0 34 52
r 2.330268 3 2 tcp 1040 ------- 0 0.0 2.0 18 31
h 2.330268 2 3 ack 40 ------- 0 2.0 0.0 18 53
r 2.33716 3 0 ack 40 ------- 0 2.0 0.0 17 44
h 2.33716 0 3 tcp 1040 ------- 0 0.0 2.0 35 54
h 2.33716 0 3 tcp 1040 ------- 0 0.0 2.0 36 55
- 2.342352 0 3 tcp 1040 ------- 0 0.0 2.0 20 33
+ 2.370268 2 3 ack 40 ------- 0 2.0 0.0 18 53
- 2.370268 2 3 ack 40 ------- 0 2.0 0.0 18 53
+ 2.37716 0 3 tcp 1040 ------- 0 0.0 2.0 35 54
+ 2.37716 0 3 tcp 1040 ------- 0 0.0 2.0 36 55
r 2.381876 3 2 tcp 1040 ------- 0 0.0 2.0 19 32
h 2.381876 2 3 ack 40 ------- 0 2.0 0.0 19 56
- 2.384992 0 3 tcp 1040 ------- 0 0.0 2.0 21 34
+ 2.421876 2 3 ack 40 ------- 0 2.0 0.0 19 56
- 2.421876 2 3 ack 40 ------- 0 2.0 0.0 19 56
r 2.424516 3 2 tcp 1040 ------- 0 0.0 2.0 20 33
h 2.424516 2 3 ack 40 ------- 0 2.0 0.0 20 57
r 2.433968 3 0 ack 40 ------- 0 2.0 0.0 18 53
h 2.433968 0 3 tcp 1040 ------- 0 0.0 2.0 37 58
h 2.433968 0 3 tcp 1040 ------- 0 0.0 2.0 38 59
- 2.43916 0 3 tcp 1040 ------- 0 0.0 2.0 22 35
+ 2.464516 2 3 ack 40 ------- 0 2.0 0.0 20 57
+ 2.473968 0 3 tcp 1040 ------- 0 0.0 2.0 37 58
+ 2.473968 0 3 tcp 1040 ------- 0 0.0 2.0 38 59
r 2.478684 3 2 tcp 1040 ------- 0 0.0 2.0 21 34
h 2.478684 2 3 ack 40 ------- 0 2.0 0.0 21 60
- 2.485648 0 3 tcp 1040 ------- 0 0.0 2.0 23 36
- 2.489332 2 3 ack 40 ------- 0 2.0 0.0 20 57
+ 2.518684 2 3 ack 40 ------- 0 2.0 0.0 21 60
- 2.518684 2 3 ack 40 ------- 0 2.0 0.0 21 60
r 2.525172 3 2 tcp 1040 ------- 0 0.0 2.0 22 35
h 2.525172 2 3 ack 40 ------- 0 2.0 0.0 22 61
r 2.528856 3 0 ack 40 ------- 0 2.0 0.0 19 56
h 2.528856 0 3 tcp 1040 ------- 0 0.0 2.0 39 62
r 2.540864 3 0 ack 40 ------- 0 2.0 0.0 20 57
h 2.540864 0 3 tcp 1040 ------- 0 0.0 2.0 40 63
- 2.553744 0 3 tcp 1040 ------- 0 0.0 2.0 24 37
+ 2.565172 2 3 ack 40 ------- 0 2.0 0.0 22 61
+ 2.568856 0 3 tcp 1040 ------- 0 0.0 2.0 39 62
+ 2.580864 0 3 tcp 1040 ------- 0 0.0 2.0 40 63
r 2.593268 3 2 tcp 1040 ------- 0 0.0 2.0 23 36
h 2.593268 2 3 ack 40 ------- 0 2.0 0.0 23 64
- 2.61112 0 3 tcp 1040 ------- 0 0.0 2.0 25 38
- 2.623132 2 3 ack 40 ------- 0 2.0 0.0 22 61
+ 2.633268 2 3 ack 40 ------- 0 2.0 0.0 23 64
- 2.633268 2 3 ack 40 ------- 0 2.0 0.0 23 64
r 2.650644 3 2 tcp 1040 ------- 0 0.0 2.0 24 37
h 2.650644 2 3 ack 40 ------- 0 2.0 0.0 24 65
r 2.662656 3 0 ack 40 ------- 0 2.0 0.0 21 60
h 2.662656 0 3 tcp 1040 ------- 0 0.0 2.0 41 66
r 2.668904 3 0 ack 40 ------- 0 2.0 0.0 22 61
h 2.668904 0 3 tcp 1040 ------- 0 0.0 2.0 42 67
r 2.675832 3 0 ack 40 ------- 0 2.0 0.0 23 64
h 2.675832 0 3 tcp 1040 ------- 0 0.0 2.0 43 68
- 2.681776 0 3 tcp 1040 ------- 0 0.0 2.0 26 39
+ 2.690644 2 3 ack 40 ------- 0 2.0 0.0 24 65
- 2.690644 2 3 ack 40 ------- 0 2.0 0.0 24 65
+ 2.702656 0 3 tcp 1040 ------- 0 0.0 2.0 41 66
+ 2.708904 0 3 tcp 1040 ------- 0 0.0 2.0 42 67
+ 2.715832 0 3 tcp 1040 ------- 0 0.0 2.0 43 68
r 2.7213 3 2 tcp 1040 ------- 0 0.0 2.0 25 38
h 2.7213 2 3 ack 40 ------- 0 2.0 0.0 25 69
- 2.724416 0 3 tcp 1040 ------- 0 0.0 2.0 27 45
+ 2.7613 2 3 ack 40 ------- 0 2.0 0.0 25 69
r 2.76394 3 2 tcp 1040 ------- 0 0.0 2.0 26 39
h 2.76394 2 3 ack 40 ------- 0 2.0 0.0 26 70
- 2.770904 0 3 tcp 1040 ------- 0 0.0 2.0 28 46
+ 2.80394 2 3 ack 40 ------- 0 2.0 0.0 26 70
r 2.810428 3 2 tcp 1040 ------- 0 0.0 2.0 27 45
h 2.810428 2 3 ack 40 ------- 0 2.0 0.0 27 71
- 2.814192 0 3 tcp 1040 ------- 0 0.0 2.0 29 47
+ 2.850428 2 3 ack 40 ------- 0 2.0 0.0 27 71
r 2.853716 3 2 tcp 1040 ------- 0 0.0 2.0 28 46
h 2.853716 2 3 ack 40 ------- 0 2.0 0.0 28 72
- 2.86004 0 3 tcp 1040 ------- 0 0.0 2.0 30 48
+ 2.893716 2 3 ack 40 ------- 0 2.0 0.0 28 72
r 2.899564 3 2 tcp 1040 ------- 0 0.0 2.0 29 47
h 2.899564 2 3 ack 40 ------- 0 2.0 0.0 29 73
- 2.903328 0 3 tcp 1040 ------- 0 0.0 2.0 31 49
+ 2.939564 2 3 ack 40 ------- 0 2.0 0.0 29 73
r 2.942852 3 2 tcp 1040 ------- 0 0.0 2.0 30 48
h 2.942852 2 3 ack 40 ------- 0 2.0 0.0 30 74
- 2.945968 0 3 tcp 1040 ------- 0 0.0 2.0 32 50
+ 2.982852 2 3 ack 40 ------- 0 2.0 0.0 30 74
r 2.985492 3 2 tcp 1040 ------- 0 0.0 2.0 31 49
h 2.985492 2 3 ack 40 ------- 0 2.0 0.0 31 75
- 2.991816 0 3 tcp 1040 ------- 0 0.0 2.0 33 51
+ 3.025492 2 3 ack 40 ------- 0 2.0 0.0 31 75
r 3.03134 3 2 tcp 1040 ------- 0 0.0 2.0 32 50
h 3.03134 2 3 ack 40 ------- 0 2.0 0.0 32 76
- 3.034456 0 3 tcp 1040 ------- 0 0.0 2.0 34 52
+ 3.07134 2 3 ack 40 ------- 0 2.0 0.0 32 76
r 3.07398 3 2 tcp 1040 ------- 0 0.0 2.0 33 51
h 3.07398 2 3 ack 40 ------- 0 2.0 0.0 33 77
- 3.077744 0 3 tcp 1040 ------- 0 0.0 2.0 35 54
+ 3.11398 2 3 ack 40 ------- 0 2.0 0.0 33 77
r 3.117268 3 2 tcp 1040 ------- 0 0.0 2.0 34 52
h 3.117268 2 3 ack 40 ------- 0 2.0 0.0 34 78
- 3.120384 0 3 tcp 1040 ------- 0 0.0 2.0 36 55
+ 3.157268 2 3 ack 40 ------- 0 2.0 0.0 34 78
r 3.159908 3 2 tcp 1040 ------- 0 0.0 2.0 35 54
h 3.159908 2 3 ack 40 ------- 0 2.0 0.0 35 79
- 3.163024 0 3 tcp 1040 ------- 0 0.0 2.0 37 58
+ 3.199908 2 3 ack 40 ------- 0 2.0 0.0 35 79
r 3.202548 3 2 tcp 1040 ------- 0 0.0 2.0 36 55
h 3.202548 2 3 ack 40 ------- 0 2.0 0.0 36 80
- 3.205664 0 3 tcp 1040 ------- 0 0.0 2.0 38 59
+ 3.242548 2 3 ack 40 ------- 0 2.0 0.0 36 80
r 3.245188 3 2 tcp 1040 ------- 0 0.0 2.0 37 58
h 3.245188 2 3 ack 40 ------- 0 2.0 0.0 37 81
- 3.248304 0 3 tcp 1040 ------- 0 0.0 2.0 39 62
+ 3.285188 2 3 ack 40 ------- 0 2.0 0.0 37 81
r 3.287828 3 2 tcp 1040 ------- 0 0.0 2.0 38 59
h 3.287828 2 3 ack 40 ------- 0 2.0 0.0 38 82
- 3.290944 0 3 tcp 1040 ------- 0 0.0 2.0 40 63
h 3.295832 0 3 tcp 1040 ---A--- 0 0.0 2.0 24 83
+ 3.327828 2 3 ack 40 ------- 0 2.0 0.0 38 82
r 3.330468 3 2 tcp 1040 ------- 0 0.0 2.0 39 62
h 3.330468 2 3 ack 40 ------- 0 2.0 0.0 39 84
- 3.333584 0 3 tcp 1040 ------- 0 0.0 2.0 41 66
+ 3.335832 0 3 tcp 1040 ---A--- 0 0.0 2.0 24 83
+ 3.370468 2 3 ack 40 ------- 0 2.0 0.0 39 84
r 3.373108 3 2 tcp 1040 ------- 0 0.0 2.0 40 63
h 3.373108 2 3 ack 40 ------- 0 2.0 0.0 40 85
- 3.376224 0 3 tcp 1040 ------- 0 0.0 2.0 42 67
+ 3.413108 2 3 ack 40 ------- 0 2.0 0.0 40 85
r 3.415748 3 2 tcp 1040 ------- 0 0.0 2.0 41 66
h 3.415748 2 3 ack 40 ------- 0 2.0 0.0 41 86
- 3.419512 0 3 tcp 1040 ------- 0 0.0 2.0 43 68
+ 3.455748 2 3 ack 40 ------- 0 2.0 0.0 41 86
r 3.459036 3 2 tcp 1040 ------- 0 0.0 2.0 42 67
h 3.459036 2 3 ack 40 ------- 0 2.0 0.0 42 87
- 3.4628 0 3 tcp 1040 ---A--- 0 0.0 2.0 24 83
+ 3.499036 2 3 ack 40 ------- 0 2.0 0.0 42 87
r 3.502324 3 2 tcp 1040 ------- 0 0.0 2.0 43 68
h 3.502324 2 3 ack 40 ------- 0 2.0 0.0 43 88
+ 3.542324 2 3 ack 40 ------- 0 2.0 0.0 43 88
r 3.544964 3 2 tcp 1040 ---A--- 0 0.0 2.0 24 83
h 3.544964 2 3 ack 40 ------- 0 2.0 0.0 43 89
+ 3.584964 2 3 ack 40 ------- 0 2.0 0.0 43 89
h 4.535832 0 3 tcp 1040 ---A--- 0 0.0 2.0 24 90
+ 4.575832 0 3 tcp 1040 ---A--- 0 0.0 2.0 24 90
- 4.575832 0 3 tcp 1040 ---A--- 0 0.0 2.0 24 90
r 4.657996 3 2 tcp 1040 ---A--- 0 0.0 2.0 24 90
h 4.657996 2 3 ack 40 ------- 0 2.0 0.0 43 91
- 4.659676 2 3 ack 40 ------- 0 2.0 0.0 25 69
- 4.662716 2 3 ack 40 ------- 0 2.0 0.0 26 70
- 4.665756 2 3 ack 40 ------- 0 2.0 0.0 27 71
- 4.668796 2 3 ack 40 ------- 0 2.0 0.0 28 72
- 4.671836 2 3 ack 40 ------- 0 2.0 0.0 29 73
- 4.674876 2 3 ack 40 ------- 0 2.0 0.0 30 74
- 4.677916 2 3 ack 40 ------- 0 2.0 0.0 31 75
- 4.680956 2 3 ack 40 ------- 0 2.0 0.0 32 76
- 4.683996 2 3 ack 40 ------- 0 2.0 0.0 33 77
- 4.687036 2 3 ack 40 ------- 0 2.0 0.0 34 78
- 4.690076 2 3 ack 40 ------- 0 2.0 0.0 35 79
- 4.693116 2 3 ack 40 ------- 0 2.0 0.0 36 80
- 4.696156 2 3 ack 40 ------- 0 2.0 0.0 37 81
+ 4.697996 2 3 ack 40 ------- 0 2.0 0.0 43 91
- 4.699196 2 3 ack 40 ------- 0 2.0 0.0 38 82
r 4.6992 3 0 ack 40 ------- 0 2.0 0.0 24 65
h 4.6992 0 3 tcp 1040 ------- 0 0.0 2.0 25 92
h 4.6992 0 3 tcp 1040 ------- 0 0.0 2.0 26 93
- 4.702236 2 3 ack 40 ------- 0 2.0 0.0 39 84
r 4.70224 3 0 ack 40 ------- 0 2.0 0.0 25 69
h 4.70224 0 3 tcp 1040 ------- 0 0.0 2.0 27 94
- 4.705276 2 3 ack 40 ------- 0 2.0 0.0 40 85
r 4.70528 3 0 ack 40 ------- 0 2.0 0.0 26 70
h 4.70528 0 3 tcp 1040 ------- 0 0.0 2.0 28 95
- 4.708316 2 3 ack 40 ------- 0 2.0 0.0 41 86
r 4.70832 3 0 ack 40 ------- 0 2.0 0.0 27 71
h 4.70832 0 3 tcp 1040 ------- 0 0.0 2.0 29 96
h 4.70832 0 3 tcp 1040 ------- 0 0.0 2.0 30 97
- 4.711356 2 3 ack 40 ------- 0 2.0 0.0 42 87
r 4.71136 3 0 ack 40 ------- 0 2.0 0.0 28 72
h 4.71136 0 3 tcp 1040 ------- 0 0.0 2.0 31 98
- 4.714396 2 3 ack 40 ------- 0 2.0 0.0 43 88
r 4.7144 3 0 ack 40 ------- 0 2.0 0.0 29 73
h 4.7144 0 3 tcp 1040 ------- 0 0.0 2.0 32 99
- 4.717436 2 3 ack 40 ------- 0 2.0 0.0 43 89
r 4.71744 3 0 ack 40 ------- 0 2.0 0.0 30 74
h 4.71744 0 3 tcp 1040 ------- 0 0.0 2.0 33 100
h 4.71744 0 3 tcp 1040 ------- 0 0.0 2.0 34 101
- 4.720476 2 3 ack 40 ------- 0 2.0 0.0 43 91
r 4.72048 3 0 ack 40 ------- 0 2.0 0.0 31 75
h 4.72048 0 3 tcp 1040 ------- 0 0.0 2.0 35 102
r 4.72352 3 0 ack 40 ------- 0 2.0 0.0 32 76
h 4.72352 0 3 tcp 1040 ------- 0 0.0 2.0 36 103
r 4.72656 3 0 ack 40 ------- 0 2.0 0.0 33 77
h 4.72656 0 3 tcp 1040 ------- 0 0.0 2.0 37 104
r 4.7296 3 0 ack 40 ------- 0 2.0 0.0 34 78
h 4.7296 0 3 tcp 1040 ------- 0 0.0 2.0 38 105
r 4.73264 3 0 ack 40 ------- 0 2.0 0.0 35 79
h 4.73264 0 3 tcp 1040 ------- 0 0.0 2.0 39 106
h 4.73264 0 3 tcp 1040 ------- 0 0.0 2.0 40 107
r 4.73568 3 0 ack 40 ------- 0 2.0 0.0 36 80
h 4.73568 0 3 tcp 1040 ------- 0 0.0 2.0 41 108
r 4.73872 3 0 ack 40 ------- 0 2.0 0.0 37 81
h 4.73872 0 3 tcp 1040 ------- 0 0.0 2.0 42 109
+ 4.7392 0 3 tcp 1040 ------- 0 0.0 2.0 25 92
- 4.7392 0 3 tcp 1040 ------- 0 0.0 2.0 25 92
+ 4.7392 0 3 tcp 1040 ------- 0 0.0 2.0 26 93
r 4.74176 3 0 ack 40 ------- 0 2.0 0.0 38 82
h 4.74176 0 3 tcp 1040 ------- 0 0.0 2.0 43 110
+ 4.74224 0 3 tcp 1040 ------- 0 0.0 2.0 27 94
r 4.7448 3 0 ack 40 ------- 0 2.0 0.0 39 84
h 4.7448 0 3 tcp 1040 ------- 0 0.0 2.0 44 111
+ 4.74528 0 3 tcp 1040 ------- 0 0.0 2.0 28 95
r 4.74784 3 0 ack 40 ------- 0 2.0 0.0 40 85
h 4.74784 0 3 tcp 1040 ------- 0 0.0 2.0 45 112
h 4.74784 0 3 tcp 1040 ------- 0 0.0 2.0 46 113
+ 4.74832 0 3 tcp 1040 ------- 0 0.0 2.0 29 96
+ 4.74832 0 3 tcp 1040 ------- 0 0.0 2.0 30 97
r 4.75088 3 0 ack 40 ------- 0 2.0 0.0 41 86
h 4.75088 0 3 tcp 1040 ------- 0 0.0 2.0 47 114
+ 4.75136 0 3 tcp 1040 ------- 0 0.0 2.0 31 98
r 4.75392 3 0 ack 40 ------- 0 2.0 0.0 42 87
h 4.75392 0 3 tcp 1040 ------- 0 0.0 2.0 48 115
+ 4.7544 0 3 tcp 1040 ------- 0 0.0 2.0 32 99
r 4.75696 3 0 ack 40 ------- 0 2.0 0.0 43 88
h 4.75696 0 3 tcp 1040 ------- 0 0.0 2.0 49 116
+ 4.75744 0 3 tcp 1040 ------- 0 0.0 2.0 33 100
+ 4.75744 0 3 tcp 1040 ------- 0 0.0 2.0 34 101
r 4.76 3 0 ack 40 ------- 0 2.0 0.0 43 89
h 4.76 0 3 tcp 1040 ------- 0 0.0 2.0 50 117
+ 4.76048 0 3 tcp 1040 ------- 0 0.0 2.0 35 102
r 4.76304 3 0 ack 40 ------- 0 2.0 0.0 43 91
h 4.76304 0 3 tcp 1040 ------- 0 0.0 2.0 51 118
+ 4.76352 0 3 tcp 1040 ------- 0 0.0 2.0 36 103
+ 4.76656 0 3 tcp 1040 ------- 0 0.0 2.0 37 104
+ 4.7696 0 3 tcp 1040 ------- 0 0.0 2.0 38 105
+ 4.77264 0 3 tcp 1040 ------- 0 0.0 2.0 39 106
+ 4.77264 0 3 tcp 1040 ------- 0 0.0 2.0 40 107
+ 4.77568 0 3 tcp 1040 ------- 0 0.0 2.0 41 108
+ 4.77872 0 3 tcp 1040 ------- 0 0.0 2.0 42 109
+ 4.78176 0 3 tcp 1040 ------- 0 0.0 2.0 43 110
- 4.78184 0 3 tcp 1040 ------- 0 0.0 2.0 26 93
+ 4.7848 0 3 tcp 1040 ------- 0 0.0 2.0 44 111
+ 4.78784 0 3 tcp 1040 ------- 0 0.0 2.0 45 112
+ 4.78784 0 3 tcp 1040 ------- 0 0.0 2.0 46 113
+ 4.79088 0 3 tcp 1040 ------- 0 0.0 2.0 47 114
+ 4.79392 0 3 tcp 1040 ------- 0 0.0 2.0 48 115
+ 4.79696 0 3 tcp 1040 ------- 0 0.0 2.0 49 116
+ 4.8 0 3 tcp 1040 ------- 0 0.0 2.0 50 117
+ 4.80304 0 3 tcp 1040 ------- 0 0.0 2.0 51 118
r 4.821364 3 2 tcp 1040 ------- 0 0.0 2.0 25 92
h 4.821364 2 3 ack 40 ------- 0 2.0 0.0 43 119
- 4.82448 0 3 tcp 1040 ------- 0 0.0 2.0 27 94
+ 4.861364 2 3 ack 40 ------- 0 2.0 0.0 43 119
- 4.861364 2 3 ack 40 ------- 0 2.0 0.0 43 119
r 4.864004 3 2 tcp 1040 ------- 0 0.0 2.0 26 93
h 4.864004 2 3 ack 40 ------- 0 2.0 0.0 43 120
- 4.86712 0 3 tcp 1040 ------- 0 0.0 2.0 28 95
+ 4.904004 2 3 ack 40 ------- 0 2.0 0.0 43 120
- 4.904004 2 3 ack 40 ------- 0 2.0 0.0 43 120
r 4.906644 3 2 tcp 1040 ------- 0 0.0 2.0 27 94
h 4.906644 2 3 ack 40 ------- 0 2.0 0.0 43 121
r 4.910328 3 0 ack 40 ------- 0 2.0 0.0 43 119
- 4.913448 0 3 tcp 1040 ------- 0 0.0 2.0 29 96
+ 4.946644 2 3 ack 40 ------- 0 2.0 0.0 43 121
- 4.946644 2 3 ack 40 ------- 0 2.0 0.0 43 121
r 4.952972 3 2 tcp 1040 ------- 0 0.0 2.0 28 95
h 4.952972 2 3 ack 40 ------- 0 2.0 0.0 43 122
r 4.959864 3 0 ack 40 ------- 0 2.0 0.0 43 120
- 4.965056 0 3 tcp 1040 ------- 0 0.0 2.0 30 97
+ 4.992972 2 3 ack 40 ------- 0 2.0 0.0 43 122
- 4.992972 2 3 ack 40 ------- 0 2.0 0.0 43 122
r 5.00458 3 2 tcp 1040 ------- 0 0.0 2.0 29 96
h 5.00458 2 3 ack 40 ------- 0 2.0 0.0 43 123
r 5.008264 3 0 ack 40 ------- 0 2.0 0.0 43 121
- 5.011384 0 3 tcp 1040 ------- 0 0.0 2.0 31 98
+ 5.04458 2 3 ack 40 ------- 0 2.0 0.0 43 123
r 5.050908 3 2 tcp 1040 ------- 0 0.0 2.0 30 97
h 5.050908 2 3 ack 40 ------- 0 2.0 0.0 43 124
- 5.054672 0 3 tcp 1040 ------- 0 0.0 2.0 32 99
+ 5.090908 2 3 ack 40 ------- 0 2.0 0.0 43 124
r 5.094196 3 2 tcp 1040 ------- 0 0.0 2.0 31 98
h 5.094196 2 3 ack 40 ------- 0 2.0 0.0 43 125
- 5.124848 0 3 tcp 1040 ------- 0 0.0 2.0 33 100
+ 5.134196 2 3 ack 40 ------- 0 2.0 0.0 43 125
r 5.164372 3 2 tcp 1040 ------- 0 0.0 2.0 32 99
h 5.164372 2 3 ack 40 ------- 0 2.0 0.0 43 126
- 5.170696 0 3 tcp 1040 ------- 0 0.0 2.0 34 101
+ 5.204372 2 3 ack 40 ------- 0 2.0 0.0 43 126
r 5.21022 3 2 tcp 1040 ------- 0 0.0 2.0 33 100
h 5.21022 2 3 ack 40 ------- 0 2.0 0.0 43 127
- 5.216544 0 3 tcp 1040 ------- 0 0.0 2.0 35 102
+ 5.25022 2 3 ack 40 ------- 0 2.0 0.0 43 127
r 5.256068 3 2 tcp 1040 ------- 0 0.0 2.0 34 101
h 5.256068 2 3 ack 40 ------- 0 2.0 0.0 43 128
- 5.259184 0 3 tcp 1040 ------- 0 0.0 2.0 36 103
+ 5.296068 2 3 ack 40 ------- 0 2.0 0.0 43 128
r 5.298708 3 2 tcp 1040 ------- 0 0.0 2.0 35 102
h 5.298708 2 3 ack 40 ------- 0 2.0 0.0 43 129
- 5.302472 0 3 tcp 1040 ------- 0 0.0 2.0 37 104
+ 5.338708 2 3 ack 40 ------- 0 2.0 0.0 43 129
r 5.341996 3 2 tcp 1040 ------- 0 0.0 2.0 36 103
h 5.341996 2 3 ack 40 ------- 0 2.0 0.0 43 130
- 5.345112 0 3 tcp 1040 ------- 0 0.0 2.0 38 105
+ 5.381996 2 3 ack 40 ------- 0 2.0 0.0 43 130
r 5.384636 3 2 tcp 1040 ------- 0 0.0 2.0 37 104
h 5.384636 2 3 ack 40 ------- 0 2.0 0.0 43 131
- 5.387752 0 3 tcp 1040 ------- 0 0.0 2.0 39 106
+ 5.424636 2 3 ack 40 ------- 0 2.0 0.0 43 131
r 5.427276 3 2 tcp 1040 ------- 0 0.0 2.0 38 105
h 5.427276 2 3 ack 40 ------- 0 2.0 0.0 43 132
- 5.430392 0 3 tcp 1040 ------- 0 0.0 2.0 40 107
+ 5.467276 2 3 ack 40 ------- 0 2.0 0.0 43 132
r 5.469916 3 2 tcp 1040 ------- 0 0.0 2.0 39 106
h 5.469916 2 3 ack 40 ------- 0 2.0 0.0 43 133
- 5.473032 0 3 tcp 1040 ------- 0 0.0 2.0 41 108
