+ 0.1 0 1 tcp 40 ------- 1 0.0 2.0 0 0
- 0.1 0 1 tcp 40 ------- 1 0.0 2.0 0 0
r 0.110032 0 1 tcp 40 ------- 1 0.0 2.0 0 0
+ 0.110032 1 2 tcp 40 ------- 1 0.0 2.0 0 0
- 0.110032 1 2 tcp 40 ------- 1 0.0 2.0 0 0
r 0.120192 1 2 tcp 40 ------- 1 0.0 2.0 0 0
+ 0.120192 2 1 ack 40 ------- 1 2.0 0.0 0 1
- 0.120192 2 1 ack 40 ------- 1 2.0 0.0 0 1
r 0.130352 2 1 ack 40 ------- 1 2.0 0.0 0 1
+ 0.130352 1 0 ack 40 ------- 1 2.0 0.0 0 1
- 0.130352 1 0 ack 40 ------- 1 2.0 0.0 0 1
r 0.140384 1 0 ack 40 ------- 1 2.0 0.0 0 1
+ 0.140384 0 1 tcp 592 ------- 1 0.0 2.0 1 2
- 0.140384 0 1 tcp 592 ------- 1 0.0 2.0 1 2
+ 0.140384 0 1 tcp 592 ------- 1 0.0 2.0 2 3
- 0.140858 0 1 tcp 592 ------- 1 0.0 2.0 2 3
r 0.150858 0 1 tcp 592 ------- 1 0.0 2.0 1 2
+ 0.150858 1 2 tcp 592 ------- 1 0.0 2.0 1 2
- 0.150858 1 2 tcp 592 ------- 1 0.0 2.0 1 2
r 0.151331 0 1 tcp 592 ------- 1 0.0 2.0 2 3
+ 0.151331 1 2 tcp 592 ------- 1 0.0 2.0 2 3
- 0.153226 1 2 tcp 592 ------- 1 0.0 2.0 2 3
r 0.163226 1 2 tcp 592 ------- 1 0.0 2.0 1 2
r 0.165594 1 2 tcp 592 ------- 1 0.0 2.0 2 3
+ 0.165594 2 1 ack 40 ------- 1 2.0 0.0 2 4
- 0.165594 2 1 ack 40 ------- 1 2.0 0.0 2 4
r 0.175754 2 1 ack 40 ------- 1 2.0 0.0 2 4
+ 0.175754 1 0 ack 40 ------- 1 2.0 0.0 2 4
- 0.175754 1 0 ack 40 ------- 1 2.0 0.0 2 4
r 0.185786 1 0 ack 40 ------- 1 2.0 0.0 2 4
+ 0.185786 0 1 tcp 592 ------- 1 0.0 2.0 3 5
- 0.185786 0 1 tcp 592 ------- 1 0.0 2.0 3 5
+ 0.185786 0 1 tcp 592 ------- 1 0.0 2.0 4 6
+ 0.185786 0 1 tcp 592 ------- 1 0.0 2.0 5 7
- 0.186259 0 1 tcp 592 ------- 1 0.0 2.0 4 6
- 0.186733 0 1 tcp 592 ------- 1 0.0 2.0 5 7
r 0.196259 0 1 tcp 592 ------- 1 0.0 2.0 3 5
+ 0.196259 1 2 tcp 592 ------- 1 0.0 2.0 3 5
- 0.196259 1 2 tcp 592 ------- 1 0.0 2.0 3 5
r 0.196733 0 1 tcp 592 ------- 1 0.0 2.0 4 6
+ 0.196733 1 2 tcp 592 ------- 1 0.0 2.0 4 6
r 0.197206 0 1 tcp 592 ------- 1 0.0 2.0 5 7
+ 0.197206 1 2 tcp 592 ------- 1 0.0 2.0 5 7
- 0.198627 1 2 tcp 592 ------- 1 0.0 2.0 4 6
- 0.200995 1 2 tcp 592 ------- 1 0.0 2.0 5 7
r 0.208627 1 2 tcp 592 ------- 1 0.0 2.0 3 5
r 0.210995 1 2 tcp 592 ------- 1 0.0 2.0 4 6
+ 0.210995 2 1 ack 40 ------- 1 2.0 0.0 4 8
- 0.210995 2 1 ack 40 ------- 1 2.0 0.0 4 8
r 0.213363 1 2 tcp 592 ------- 1 0.0 2.0 5 7
r 0.221155 2 1 ack 40 ------- 1 2.0 0.0 4 8
+ 0.221155 1 0 ack 40 ------- 1 2.0 0.0 4 8
- 0.221155 1 0 ack 40 ------- 1 2.0 0.0 4 8
r 0.231187 1 0 ack 40 ------- 1 2.0 0.0 4 8
+ 0.231187 0 1 tcp 592 ------- 1 0.0 2.0 6 9
- 0.231187 0 1 tcp 592 ------- 1 0.0 2.0 6 9
+ 0.231187 0 1 tcp 592 ------- 1 0.0 2.0 7 10
+ 0.231187 0 1 tcp 592 ------- 1 0.0 2.0 8 11
- 0.231661 0 1 tcp 592 ------- 1 0.0 2.0 7 10
- 0.232134 0 1 tcp 592 ------- 1 0.0 2.0 8 11
r 0.241661 0 1 tcp 592 ------- 1 0.0 2.0 6 9
+ 0.241661 1 2 tcp 592 ------- 1 0.0 2.0 6 9
- 0.241661 1 2 tcp 592 ------- 1 0.0 2.0 6 9
r 0.242134 0 1 tcp 592 ------- 1 0.0 2.0 7 10
+ 0.242134 1 2 tcp 592 ------- 1 0.0 2.0 7 10
r 0.242608 0 1 tcp 592 ------- 1 0.0 2.0 8 11
+ 0.242608 1 2 tcp 592 ------- 1 0.0 2.0 8 11
- 0.244029 1 2 tcp 592 ------- 1 0.0 2.0 7 10
- 0.246397 1 2 tcp 592 ------- 1 0.0 2.0 8 11
r 0.254029 1 2 tcp 592 ------- 1 0.0 2.0 6 9
+ 0.254029 2 1 ack 40 ------- 1 2.0 0.0 6 12
- 0.254029 2 1 ack 40 ------- 1 2.0 0.0 6 12
r 0.256397 1 2 tcp 592 ------- 1 0.0 2.0 7 10
r 0.258765 1 2 tcp 592 ------- 1 0.0 2.0 8 11
+ 0.258765 2 1 ack 40 ------- 1 2.0 0.0 8 13
- 0.258765 2 1 ack 40 ------- 1 2.0 0.0 8 13
r 0.264189 2 1 ack 40 ------- 1 2.0 0.0 6 12
+ 0.264189 1 0 ack 40 ------- 1 2.0 0.0 6 12
- 0.264189 1 0 ack 40 ------- 1 2.0 0.0 6 12
r 0.268925 2 1 ack 40 ------- 1 2.0 0.0 8 13
+ 0.268925 1 0 ack 40 ------- 1 2.0 0.0 8 13
- 0.268925 1 0 ack 40 ------- 1 2.0 0.0 8 13
r 0.274221 1 0 ack 40 ------- 1 2.0 0.0 6 12
+ 0.274221 0 1 tcp 592 ------- 1 0.0 2.0 9 14
- 0.274221 0 1 tcp 592 ------- 1 0.0 2.0 9 14
+ 0.274221 0 1 tcp 592 ------- 1 0.0 2.0 10 15
+ 0.274221 0 1 tcp 592 ------- 1 0.0 2.0 11 16
- 0.274694 0 1 tcp 592 ------- 1 0.0 2.0 10 15
- 0.275168 0 1 tcp 592 ------- 1 0.0 2.0 11 16
r 0.278957 1 0 ack 40 ------- 1 2.0 0.0 8 13
+ 0.278957 0 1 tcp 592 ------- 1 0.0 2.0 12 17
- 0.278957 0 1 tcp 592 ------- 1 0.0 2.0 12 17
+ 0.278957 0 1 tcp 592 ------- 1 0.0 2.0 13 18
+ 0.278957 0 1 tcp 592 ------- 1 0.0 2.0 14 19
- 0.27943 0 1 tcp 592 ------- 1 0.0 2.0 13 18
- 0.279904 0 1 tcp 592 ------- 1 0.0 2.0 14 19
r 0.284694 0 1 tcp 592 ------- 1 0.0 2.0 9 14
+ 0.284694 1 2 tcp 592 ------- 1 0.0 2.0 9 14
- 0.284694 1 2 tcp 592 ------- 1 0.0 2.0 9 14
r 0.285168 0 1 tcp 592 ------- 1 0.0 2.0 10 15
+ 0.285168 1 2 tcp 592 ------- 1 0.0 2.0 10 15
r 0.285642 0 1 tcp 592 ------- 1 0.0 2.0 11 16
+ 0.285642 1 2 tcp 592 ------- 1 0.0 2.0 11 16
- 0.287062 1 2 tcp 592 ------- 1 0.0 2.0 10 15
- 0.28943 1 2 tcp 592 ------- 1 0.0 2.0 11 16
r 0.28943 0 1 tcp 592 ------- 1 0.0 2.0 12 17
+ 0.28943 1 2 tcp 592 ------- 1 0.0 2.0 12 17
r 0.289904 0 1 tcp 592 ------- 1 0.0 2.0 13 18
+ 0.289904 1 2 tcp 592 ------- 1 0.0 2.0 13 18
r 0.290378 0 1 tcp 592 ------- 1 0.0 2.0 14 19
+ 0.290378 1 2 tcp 592 ------- 1 0.0 2.0 14 19
- 0.291798 1 2 tcp 592 ------- 1 0.0 2.0 12 17
- 0.294166 1 2 tcp 592 ------- 1 0.0 2.0 13 18
- 0.296534 1 2 tcp 592 ------- 1 0.0 2.0 14 19
r 0.297062 1 2 tcp 592 ------- 1 0.0 2.0 9 14
r 0.29943 1 2 tcp 592 ------- 1 0.0 2.0 10 15
+ 0.29943 2 1 ack 40 ------- 1 2.0 0.0 10 20
- 0.29943 2 1 ack 40 ------- 1 2.0 0.0 10 20
r 0.301798 1 2 tcp 592 ------- 1 0.0 2.0 11 16
r 0.304166 1 2 tcp 592 ------- 1 0.0 2.0 12 17
+ 0.304166 2 1 ack 40 ------- 1 2.0 0.0 12 21
- 0.304166 2 1 ack 40 ------- 1 2.0 0.0 12 21
r 0.306534 1 2 tcp 592 ------- 1 0.0 2.0 13 18
r 0.308902 1 2 tcp 592 ------- 1 0.0 2.0 14 19
+ 0.308902 2 1 ack 40 ------- 1 2.0 0.0 14 22
- 0.308902 2 1 ack 40 ------- 1 2.0 0.0 14 22
r 0.30959 2 1 ack 40 ------- 1 2.0 0.0 10 20
+ 0.30959 1 0 ack 40 ------- 1 2.0 0.0 10 20
- 0.30959 1 0 ack 40 ------- 1 2.0 0.0 10 20
r 0.314326 2 1 ack 40 ------- 1 2.0 0.0 12 21
+ 0.314326 1 0 ack 40 ------- 1 2.0 0.0 12 21
- 0.314326 1 0 ack 40 ------- 1 2.0 0.0 12 21
r 0.319062 2 1 ack 40 ------- 1 2.0 0.0 14 22
+ 0.319062 1 0 ack 40 ------- 1 2.0 0.0 14 22
- 0.319062 1 0 ack 40 ------- 1 2.0 0.0 14 22
r 0.319622 1 0 ack 40 ------- 1 2.0 0.0 10 20
+ 0.319622 0 1 tcp 592 ------- 1 0.0 2.0 15 23
- 0.319622 0 1 tcp 592 ------- 1 0.0 2.0 15 23
+ 0.319622 0 1 tcp 592 ------- 1 0.0 2.0 16 24
+ 0.319622 0 1 tcp 592 ------- 1 0.0 2.0 17 25
- 0.320096 0 1 tcp 592 ------- 1 0.0 2.0 16 24
- 0.32057 0 1 tcp 592 ------- 1 0.0 2.0 17 25
r 0.324358 1 0 ack 40 ------- 1 2.0 0.0 12 21
+ 0.324358 0 1 tcp 592 ------- 1 0.0 2.0 18 26
- 0.324358 0 1 tcp 592 ------- 1 0.0 2.0 18 26
+ 0.324358 0 1 tcp 592 ------- 1 0.0 2.0 19 27
+ 0.324358 0 1 tcp 592 ------- 1 0.0 2.0 20 28
- 0.324832 0 1 tcp 592 ------- 1 0.0 2.0 19 27
- 0.325306 0 1 tcp 592 ------- 1 0.0 2.0 20 28
r 0.329094 1 0 ack 40 ------- 1 2.0 0.0 14 22
+ 0.329094 0 1 tcp 592 ------- 1 0.0 2.0 21 29
- 0.329094 0 1 tcp 592 ------- 1 0.0 2.0 21 29
+ 0.329094 0 1 tcp 592 ------- 1 0.0 2.0 22 30
+ 0.329094 0 1 tcp 592 ------- 1 0.0 2.0 23 31
- 0.329568 0 1 tcp 592 ------- 1 0.0 2.0 22 30
- 0.330042 0 1 tcp 592 ------- 1 0.0 2.0 23 31
r 0.330096 0 1 tcp 592 ------- 1 0.0 2.0 15 23
+ 0.330096 1 2 tcp 592 ------- 1 0.0 2.0 15 23
- 0.330096 1 2 tcp 592 ------- 1 0.0 2.0 15 23
r 0.33057 0 1 tcp 592 ------- 1 0.0 2.0 16 24
+ 0.33057 1 2 tcp 592 ------- 1 0.0 2.0 16 24
r 0.331043 0 1 tcp 592 ------- 1 0.0 2.0 17 25
+ 0.331043 1 2 tcp 592 ------- 1 0.0 2.0 17 25
- 0.332464 1 2 tcp 592 ------- 1 0.0 2.0 16 24
r 0.334832 0 1 tcp 592 ------- 1 0.0 2.0 18 26
+ 0.334832 1 2 tcp 592 ------- 1 0.0 2.0 18 26
- 0.334832 1 2 tcp 592 ------- 1 0.0 2.0 17 25
r 0.335306 0 1 tcp 592 ------- 1 0.0 2.0 19 27
+ 0.335306 1 2 tcp 592 ------- 1 0.0 2.0 19 27
r 0.335779 0 1 tcp 592 ------- 1 0.0 2.0 20 28
+ 0.335779 1 2 tcp 592 ------- 1 0.0 2.0 20 28
- 0.3372 1 2 tcp 592 ------- 1 0.0 2.0 18 26
r 0.339568 0 1 tcp 592 ------- 1 0.0 2.0 21 29
+ 0.339568 1 2 tcp 592 ------- 1 0.0 2.0 21 29
- 0.339568 1 2 tcp 592 ------- 1 0.0 2.0 19 27
r 0.340042 0 1 tcp 592 ------- 1 0.0 2.0 22 30
+ 0.340042 1 2 tcp 592 ------- 1 0.0 2.0 22 30
r 0.340515 0 1 tcp 592 ------- 1 0.0 2.0 23 31
+ 0.340515 1 2 tcp 592 ------- 1 0.0 2.0 23 31
- 0.341936 1 2 tcp 592 ------- 1 0.0 2.0 20 28
r 0.342464 1 2 tcp 592 ------- 1 0.0 2.0 15 23
- 0.344304 1 2 tcp 592 ------- 1 0.0 2.0 21 29
r 0.344832 1 2 tcp 592 ------- 1 0.0 2.0 16 24
+ 0.344832 2 1 ack 40 ------- 1 2.0 0.0 16 32
- 0.344832 2 1 ack 40 ------- 1 2.0 0.0 16 32
- 0.346672 1 2 tcp 592 ------- 1 0.0 2.0 22 30
r 0.3472 1 2 tcp 592 ------- 1 0.0 2.0 17 25
- 0.34904 1 2 tcp 592 ------- 1 0.0 2.0 23 31
r 0.349568 1 2 tcp 592 ------- 1 0.0 2.0 18 26
+ 0.349568 2 1 ack 40 ------- 1 2.0 0.0 18 33
- 0.349568 2 1 ack 40 ------- 1 2.0 0.0 18 33
r 0.351936 1 2 tcp 592 ------- 1 0.0 2.0 19 27
r 0.354304 1 2 tcp 592 ------- 1 0.0 2.0 20 28
+ 0.354304 2 1 ack 40 ------- 1 2.0 0.0 20 34
- 0.354304 2 1 ack 40 ------- 1 2.0 0.0 20 34
r 0.354992 2 1 ack 40 ------- 1 2.0 0.0 16 32
+ 0.354992 1 0 ack 40 ------- 1 2.0 0.0 16 32
- 0.354992 1 0 ack 40 ------- 1 2.0 0.0 16 32
r 0.356672 1 2 tcp 592 ------- 1 0.0 2.0 21 29
r 0.35904 1 2 tcp 592 ------- 1 0.0 2.0 22 30
+ 0.35904 2 1 ack 40 ------- 1 2.0 0.0 22 35
- 0.35904 2 1 ack 40 ------- 1 2.0 0.0 22 35
r 0.359728 2 1 ack 40 ------- 1 2.0 0.0 18 33
+ 0.359728 1 0 ack 40 ------- 1 2.0 0.0 18 33
- 0.359728 1 0 ack 40 ------- 1 2.0 0.0 18 33
r 0.361408 1 2 tcp 592 ------- 1 0.0 2.0 23 31
r 0.364464 2 1 ack 40 ------- 1 2.0 0.0 20 34
+ 0.364464 1 0 ack 40 ------- 1 2.0 0.0 20 34
- 0.364464 1 0 ack 40 ------- 1 2.0 0.0 20 34
r 0.365024 1 0 ack 40 ------- 1 2.0 0.0 16 32
+ 0.365024 0 1 tcp 592 ------- 1 0.0 2.0 24 36
- 0.365024 0 1 tcp 592 ------- 1 0.0 2.0 24 36
+ 0.365024 0 1 tcp 592 ------- 1 0.0 2.0 25 37
+ 0.365024 0 1 tcp 592 ------- 1 0.0 2.0 26 38
- 0.365498 0 1 tcp 592 ------- 1 0.0 2.0 25 37
- 0.365971 0 1 tcp 592 ------- 1 0.0 2.0 26 38
r 0.3692 2 1 ack 40 ------- 1 2.0 0.0 22 35
+ 0.3692 1 0 ack 40 ------- 1 2.0 0.0 22 35
- 0.3692 1 0 ack 40 ------- 1 2.0 0.0 22 35
r 0.36976 1 0 ack 40 ------- 1 2.0 0.0 18 33
+ 0.36976 0 1 tcp 592 ------- 1 0.0 2.0 27 39
- 0.36976 0 1 tcp 592 ------- 1 0.0 2.0 27 39
+ 0.36976 0 1 tcp 592 ------- 1 0.0 2.0 28 40
+ 0.36976 0 1 tcp 592 ------- 1 0.0 2.0 29 41
- 0.370234 0 1 tcp 592 ------- 1 0.0 2.0 28 40
- 0.370707 0 1 tcp 592 ------- 1 0.0 2.0 29 41
r 0.374496 1 0 ack 40 ------- 1 2.0 0.0 20 34
+ 0.374496 0 1 tcp 592 ------- 1 0.0 2.0 30 42
- 0.374496 0 1 tcp 592 ------- 1 0.0 2.0 30 42
+ 0.374496 0 1 tcp 592 ------- 1 0.0 2.0 31 43
+ 0.374496 0 1 tcp 592 ------- 1 0.0 2.0 32 44
- 0.37497 0 1 tcp 592 ------- 1 0.0 2.0 31 43
- 0.375443 0 1 tcp 592 ------- 1 0.0 2.0 32 44
r 0.375498 0 1 tcp 592 ------- 1 0.0 2.0 24 36
+ 0.375498 1 2 tcp 592 ------- 1 0.0 2.0 24 36
- 0.375498 1 2 tcp 592 ------- 1 0.0 2.0 24 36
r 0.375971 0 1 tcp 592 ------- 1 0.0 2.0 25 37
+ 0.375971 1 2 tcp 592 ------- 1 0.0 2.0 25 37
r 0.376445 0 1 tcp 592 ------- 1 0.0 2.0 26 38
+ 0.376445 1 2 tcp 592 ------- 1 0.0 2.0 26 38
- 0.377866 1 2 tcp 592 ------- 1 0.0 2.0 25 37
r 0.379232 1 0 ack 40 ------- 1 2.0 0.0 22 35
+ 0.379232 0 1 tcp 592 ------- 1 0.0 2.0 33 45
- 0.379232 0 1 tcp 592 ------- 1 0.0 2.0 33 45
+ 0.379232 0 1 tcp 592 ------- 1 0.0 2.0 34 46
+ 0.379232 0 1 tcp 592 ------- 1 0.0 2.0 35 47
- 0.379706 0 1 tcp 592 ------- 1 0.0 2.0 34 46
- 0.380179 0 1 tcp 592 ------- 1 0.0 2.0 35 47
r 0.380234 0 1 tcp 592 ------- 1 0.0 2.0 27 39
+ 0.380234 1 2 tcp 592 ------- 1 0.0 2.0 27 39
- 0.380234 1 2 tcp 592 ------- 1 0.0 2.0 26 38
r 0.380707 0 1 tcp 592 ------- 1 0.0 2.0 28 40
+ 0.380707 1 2 tcp 592 ------- 1 0.0 2.0 28 40
r 0.381181 0 1 tcp 592 ------- 1 0.0 2.0 29 41
+ 0.381181 1 2 tcp 592 ------- 1 0.0 2.0 29 41
- 0.382602 1 2 tcp 592 ------- 1 0.0 2.0 27 39
r 0.38497 0 1 tcp 592 ------- 1 0.0 2.0 30 42
+ 0.38497 1 2 tcp 592 ------- 1 0.0 2.0 30 42
- 0.38497 1 2 tcp 592 ------- 1 0.0 2.0 28 40
r 0.385443 0 1 tcp 592 ------- 1 0.0 2.0 31 43
+ 0.385443 1 2 tcp 592 ------- 1 0.0 2.0 31 43
r 0.385917 0 1 tcp 592 ------- 1 0.0 2.0 32 44
+ 0.385917 1 2 tcp 592 ------- 1 0.0 2.0 32 44
- 0.387338 1 2 tcp 592 ------- 1 0.0 2.0 29 41
r 0.387866 1 2 tcp 592 ------- 1 0.0 2.0 24 36
+ 0.387866 2 1 ack 40 ------- 1 2.0 0.0 24 48
- 0.387866 2 1 ack 40 ------- 1 2.0 0.0 24 48
r 0.389706 0 1 tcp 592 ------- 1 0.0 2.0 33 45
+ 0.389706 1 2 tcp 592 ------- 1 0.0 2.0 33 45
- 0.389706 1 2 tcp 592 ------- 1 0.0 2.0 30 42
r 0.390179 0 1 tcp 592 ------- 1 0.0 2.0 34 46
+ 0.390179 1 2 tcp 592 ------- 1 0.0 2.0 34 46
r 0.390234 1 2 tcp 592 ------- 1 0.0 2.0 25 37
r 0.390653 0 1 tcp 592 ------- 1 0.0 2.0 35 47
+ 0.390653 1 2 tcp 592 ------- 1 0.0 2.0 35 47
- 0.392074 1 2 tcp 592 ------- 1 0.0 2.0 31 43
r 0.392602 1 2 tcp 592 ------- 1 0.0 2.0 26 38
+ 0.392602 2 1 ack 40 ------- 1 2.0 0.0 26 49
- 0.392602 2 1 ack 40 ------- 1 2.0 0.0 26 49
- 0.394442 1 2 tcp 592 ------- 1 0.0 2.0 32 44
r 0.39497 1 2 tcp 592 ------- 1 0.0 2.0 27 39
- 0.39681 1 2 tcp 592 ------- 1 0.0 2.0 33 45
r 0.397338 1 2 tcp 592 ------- 1 0.0 2.0 28 40
+ 0.397338 2 1 ack 40 ------- 1 2.0 0.0 28 50
- 0.397338 2 1 ack 40 ------- 1 2.0 0.0 28 50
r 0.398026 2 1 ack 40 ------- 1 2.0 0.0 24 48
+ 0.398026 1 0 ack 40 ------- 1 2.0 0.0 24 48
- 0.398026 1 0 ack 40 ------- 1 2.0 0.0 24 48
- 0.399178 1 2 tcp 592 ------- 1 0.0 2.0 34 46
r 0.399706 1 2 tcp 592 ------- 1 0.0 2.0 29 41
- 0.401546 1 2 tcp 592 ------- 1 0.0 2.0 35 47
r 0.402074 1 2 tcp 592 ------- 1 0.0 2.0 30 42
+ 0.402074 2 1 ack 40 ------- 1 2.0 0.0 30 51
- 0.402074 2 1 ack 40 ------- 1 2.0 0.0 30 51
r 0.402762 2 1 ack 40 ------- 1 2.0 0.0 26 49
+ 0.402762 1 0 ack 40 ------- 1 2.0 0.0 26 49
- 0.402762 1 0 ack 40 ------- 1 2.0 0.0 26 49
r 0.404442 1 2 tcp 592 ------- 1 0.0 2.0 31 43
r 0.40681 1 2 tcp 592 ------- 1 0.0 2.0 32 44
+ 0.40681 2 1 ack 40 ------- 1 2.0 0.0 32 52
- 0.40681 2 1 ack 40 ------- 1 2.0 0.0 32 52
r 0.407498 2 1 ack 40 ------- 1 2.0 0.0 28 50
+ 0.407498 1 0 ack 40 ------- 1 2.0 0.0 28 50
- 0.407498 1 0 ack 40 ------- 1 2.0 0.0 28 50
r 0.408058 1 0 ack 40 ------- 1 2.0 0.0 24 48
+ 0.408058 0 1 tcp 592 ------- 1 0.0 2.0 36 53
- 0.408058 0 1 tcp 592 ------- 1 0.0 2.0 36 53
+ 0.408058 0 1 tcp 592 ------- 1 0.0 2.0 37 54
+ 0.408058 0 1 tcp 592 ------- 1 0.0 2.0 38 55
- 0.408531 0 1 tcp 592 ------- 1 0.0 2.0 37 54
- 0.409005 0 1 tcp 592 ------- 1 0.0 2.0 38 55
r 0.409178 1 2 tcp 592 ------- 1 0.0 2.0 33 45
r 0.411546 1 2 tcp 592 ------- 1 0.0 2.0 34 46
+ 0.411546 2 1 ack 40 ------- 1 2.0 0.0 34 56
- 0.411546 2 1 ack 40 ------- 1 2.0 0.0 34 56
r 0.412234 2 1 ack 40 ------- 1 2.0 0.0 30 51
+ 0.412234 1 0 ack 40 ------- 1 2.0 0.0 30 51
- 0.412234 1 0 ack 40 ------- 1 2.0 0.0 30 51
r 0.412794 1 0 ack 40 ------- 1 2.0 0.0 26 49
+ 0.412794 0 1 tcp 592 ------- 1 0.0 2.0 39 57
- 0.412794 0 1 tcp 592 ------- 1 0.0 2.0 39 57
+ 0.412794 0 1 tcp 592 ------- 1 0.0 2.0 40 58
+ 0.412794 0 1 tcp 592 ------- 1 0.0 2.0 41 59
- 0.413267 0 1 tcp 592 ------- 1 0.0 2.0 40 58
- 0.413741 0 1 tcp 592 ------- 1 0.0 2.0 41 59
r 0.413914 1 2 tcp 592 ------- 1 0.0 2.0 35 47
r 0.41697 2 1 ack 40 ------- 1 2.0 0.0 32 52
+ 0.41697 1 0 ack 40 ------- 1 2.0 0.0 32 52
- 0.41697 1 0 ack 40 ------- 1 2.0 0.0 32 52
r 0.41753 1 0 ack 40 ------- 1 2.0 0.0 28 50
+ 0.41753 0 1 tcp 592 ------- 1 0.0 2.0 42 60
- 0.41753 0 1 tcp 592 ------- 1 0.0 2.0 42 60
+ 0.41753 0 1 tcp 592 ------- 1 0.0 2.0 43 61
+ 0.41753 0 1 tcp 592 ------- 1 0.0 2.0 44 62
- 0.418003 0 1 tcp 592 ------- 1 0.0 2.0 43 61
- 0.418477 0 1 tcp 592 ------- 1 0.0 2.0 44 62
r 0.418531 0 1 tcp 592 ------- 1 0.0 2.0 36 53
+ 0.418531 1 2 tcp 592 ------- 1 0.0 2.0 36 53
- 0.418531 1 2 tcp 592 ------- 1 0.0 2.0 36 53
r 0.419005 0 1 tcp 592 ------- 1 0.0 2.0 37 54
+ 0.419005 1 2 tcp 592 ------- 1 0.0 2.0 37 54
r 0.419478 0 1 tcp 592 ------- 1 0.0 2.0 38 55
+ 0.419478 1 2 tcp 592 ------- 1 0.0 2.0 38 55
- 0.420899 1 2 tcp 592 ------- 1 0.0 2.0 37 54
r 0.421706 2 1 ack 40 ------- 1 2.0 0.0 34 56
+ 0.421706 1 0 ack 40 ------- 1 2.0 0.0 34 56
- 0.421706 1 0 ack 40 ------- 1 2.0 0.0 34 56
r 0.422266 1 0 ack 40 ------- 1 2.0 0.0 30 51
+ 0.422266 0 1 tcp 592 ------- 1 0.0 2.0 45 63
- 0.422266 0 1 tcp 592 ------- 1 0.0 2.0 45 63
+ 0.422266 0 1 tcp 592 ------- 1 0.0 2.0 46 64
+ 0.422266 0 1 tcp 592 ------- 1 0.0 2.0 47 65
- 0.422739 0 1 tcp 592 ------- 1 0.0 2.0 46 64
- 0.423213 0 1 tcp 592 ------- 1 0.0 2.0 47 65
r 0.423267 0 1 tcp 592 ------- 1 0.0 2.0 39 57
+ 0.423267 1 2 tcp 592 ------- 1 0.0 2.0 39 57
- 0.423267 1 2 tcp 592 ------- 1 0.0 2.0 38 55
r 0.423741 0 1 tcp 592 ------- 1 0.0 2.0 40 58
+ 0.423741 1 2 tcp 592 ------- 1 0.0 2.0 40 58
r 0.424214 0 1 tcp 592 ------- 1 0.0 2.0 41 59
+ 0.424214 1 2 tcp 592 ------- 1 0.0 2.0 41 59
- 0.425635 1 2 tcp 592 ------- 1 0.0 2.0 39 57
r 0.427002 1 0 ack 40 ------- 1 2.0 0.0 32 52
+ 0.427002 0 1 tcp 592 ------- 1 0.0 2.0 48 66
- 0.427002 0 1 tcp 592 ------- 1 0.0 2.0 48 66
+ 0.427002 0 1 tcp 592 ------- 1 0.0 2.0 49 67
+ 0.427002 0 1 tcp 592 ------- 1 0.0 2.0 50 68
- 0.427475 0 1 tcp 592 ------- 1 0.0 2.0 49 67
- 0.427949 0 1 tcp 592 ------- 1 0.0 2.0 50 68
r 0.428003 0 1 tcp 592 ------- 1 0.0 2.0 42 60
+ 0.428003 1 2 tcp 592 ------- 1 0.0 2.0 42 60
- 0.428003 1 2 tcp 592 ------- 1 0.0 2.0 40 58
r 0.428477 0 1 tcp 592 ------- 1 0.0 2.0 43 61
+ 0.428477 1 2 tcp 592 ------- 1 0.0 2.0 43 61
r 0.42895 0 1 tcp 592 ------- 1 0.0 2.0 44 62
+ 0.42895 1 2 tcp 592 ------- 1 0.0 2.0 44 62
- 0.430371 1 2 tcp 592 ------- 1 0.0 2.0 41 59
r 0.430899 1 2 tcp 592 ------- 1 0.0 2.0 36 53
+ 0.430899 2 1 ack 40 ------- 1 2.0 0.0 36 69
- 0.430899 2 1 ack 40 ------- 1 2.0 0.0 36 69
r 0.431738 1 0 ack 40 ------- 1 2.0 0.0 34 56
+ 0.431738 0 1 tcp 592 ------- 1 0.0 2.0 51 70
- 0.431738 0 1 tcp 592 ------- 1 0.0 2.0 51 70
+ 0.431738 0 1 tcp 592 ------- 1 0.0 2.0 52 71
+ 0.431738 0 1 tcp 592 ------- 1 0.0 2.0 53 72
- 0.432211 0 1 tcp 592 ------- 1 0.0 2.0 52 71
- 0.432685 0 1 tcp 592 ------- 1 0.0 2.0 53 72
r 0.432739 0 1 tcp 592 ------- 1 0.0 2.0 45 63
+ 0.432739 1 2 tcp 592 ------- 1 0.0 2.0 45 63
- 0.432739 1 2 tcp 592 ------- 1 0.0 2.0 42 60
r 0.433213 0 1 tcp 592 ------- 1 0.0 2.0 46 64
+ 0.433213 1 2 tcp 592 ------- 1 0.0 2.0 46 64
r 0.433267 1 2 tcp 592 ------- 1 0.0 2.0 37 54
r 0.433686 0 1 tcp 592 ------- 1 0.0 2.0 47 65
+ 0.433686 1 2 tcp 592 ------- 1 0.0 2.0 47 65
- 0.435107 1 2 tcp 592 ------- 1 0.0 2.0 43 61
r 0.435635 1 2 tcp 592 ------- 1 0.0 2.0 38 55
+ 0.435635 2 1 ack 40 ------- 1 2.0 0.0 38 73
- 0.435635 2 1 ack 40 ------- 1 2.0 0.0 38 73
r 0.437475 0 1 tcp 592 ------- 1 0.0 2.0 48 66
+ 0.437475 1 2 tcp 592 ------- 1 0.0 2.0 48 66
- 0.437475 1 2 tcp 592 ------- 1 0.0 2.0 44 62
r 0.437949 0 1 tcp 592 ------- 1 0.0 2.0 49 67
+ 0.437949 1 2 tcp 592 ------- 1 0.0 2.0 49 67
r 0.438003 1 2 tcp 592 ------- 1 0.0 2.0 39 57
r 0.438422 0 1 tcp 592 ------- 1 0.0 2.0 50 68
+ 0.438422 1 2 tcp 592 ------- 1 0.0 2.0 50 68
- 0.439843 1 2 tcp 592 ------- 1 0.0 2.0 45 63
r 0.440371 1 2 tcp 592 ------- 1 0.0 2.0 40 58
+ 0.440371 2 1 ack 40 ------- 1 2.0 0.0 40 74
- 0.440371 2 1 ack 40 ------- 1 2.0 0.0 40 74
r 0.441059 2 1 ack 40 ------- 1 2.0 0.0 36 69
+ 0.441059 1 0 ack 40 ------- 1 2.0 0.0 36 69
- 0.441059 1 0 ack 40 ------- 1 2.0 0.0 36 69
r 0.442211 0 1 tcp 592 ------- 1 0.0 2.0 51 70
+ 0.442211 1 2 tcp 592 ------- 1 0.0 2.0 51 70
- 0.442211 1 2 tcp 592 ------- 1 0.0 2.0 46 64
r 0.442685 0 1 tcp 592 ------- 1 0.0 2.0 52 71
+ 0.442685 1 2 tcp 592 ------- 1 0.0 2.0 52 71
r 0.442739 1 2 tcp 592 ------- 1 0.0 2.0 41 59
r 0.443158 0 1 tcp 592 ------- 1 0.0 2.0 53 72
+ 0.443158 1 2 tcp 592 ------- 1 0.0 2.0 53 72
- 0.444579 1 2 tcp 592 ------- 1 0.0 2.0 47 65
r 0.445107 1 2 tcp 592 ------- 1 0.0 2.0 42 60
+ 0.445107 2 1 ack 40 ------- 1 2.0 0.0 42 75
- 0.445107 2 1 ack 40 ------- 1 2.0 0.0 42 75
r 0.445795 2 1 ack 40 ------- 1 2.0 0.0 38 73
+ 0.445795 1 0 ack 40 ------- 1 2.0 0.0 38 73
- 0.445795 1 0 ack 40 ------- 1 2.0 0.0 38 73
- 0.446947 1 2 tcp 592 ------- 1 0.0 2.0 48 66
r 0.447475 1 2 tcp 592 ------- 1 0.0 2.0 43 61
- 0.449315 1 2 tcp 592 ------- 1 0.0 2.0 49 67
r 0.449843 1 2 tcp 592 ------- 1 0.0 2.0 44 62
+ 0.449843 2 1 ack 40 ------- 1 2.0 0.0 44 76
- 0.449843 2 1 ack 40 ------- 1 2.0 0.0 44 76
r 0.450531 2 1 ack 40 ------- 1 2.0 0.0 40 74
+ 0.450531 1 0 ack 40 ------- 1 2.0 0.0 40 74
- 0.450531 1 0 ack 40 ------- 1 2.0 0.0 40 74
r 0.451091 1 0 ack 40 ------- 1 2.0 0.0 36 69
+ 0.451091 0 1 tcp 592 ------- 1 0.0 2.0 54 77
- 0.451091 0 1 tcp 592 ------- 1 0.0 2.0 54 77
+ 0.451091 0 1 tcp 592 ------- 1 0.0 2.0 55 78
+ 0.451091 0 1 tcp 592 ------- 1 0.0 2.0 56 79
- 0.451565 0 1 tcp 592 ------- 1 0.0 2.0 55 78
- 0.451683 1 2 tcp 592 ------- 1 0.0 2.0 50 68
- 0.452038 0 1 tcp 592 ------- 1 0.0 2.0 56 79
r 0.452211 1 2 tcp 592 ------- 1 0.0 2.0 45 63
- 0.454051 1 2 tcp 592 ------- 1 0.0 2.0 51 70
r 0.454579 1 2 tcp 592 ------- 1 0.0 2.0 46 64
+ 0.454579 2 1 ack 40 ------- 1 2.0 0.0 46 80
- 0.454579 2 1 ack 40 ------- 1 2.0 0.0 46 80
r 0.455267 2 1 ack 40 ------- 1 2.0 0.0 42 75
+ 0.455267 1 0 ack 40 ------- 1 2.0 0.0 42 75
- 0.455267 1 0 ack 40 ------- 1 2.0 0.0 42 75
r 0.455827 1 0 ack 40 ------- 1 2.0 0.0 38 73
+ 0.455827 0 1 tcp 592 ------- 1 0.0 2.0 57 81
- 0.455827 0 1 tcp 592 ------- 1 0.0 2.0 57 81
+ 0.455827 0 1 tcp 592 ------- 1 0.0 2.0 58 82
+ 0.455827 0 1 tcp 592 ------- 1 0.0 2.0 59 83
- 0.456301 0 1 tcp 592 ------- 1 0.0 2.0 58 82
- 0.456419 1 2 tcp 592 ------- 1 0.0 2.0 52 71
- 0.456774 0 1 tcp 592 ------- 1 0.0 2.0 59 83
r 0.456947 1 2 tcp 592 ------- 1 0.0 2.0 47 65
- 0.458787 1 2 tcp 592 ------- 1 0.0 2.0 53 72
r 0.459315 1 2 tcp 592 ------- 1 0.0 2.0 48 66
+ 0.459315 2 1 ack 40 ------- 1 2.0 0.0 48 84
- 0.459315 2 1 ack 40 ------- 1 2.0 0.0 48 84
r 0.460003 2 1 ack 40 ------- 1 2.0 0.0 44 76
+ 0.460003 1 0 ack 40 ------- 1 2.0 0.0 44 76
- 0.460003 1 0 ack 40 ------- 1 2.0 0.0 44 76
r 0.460563 1 0 ack 40 ------- 1 2.0 0.0 40 74
+ 0.460563 0 1 tcp 592 ------- 1 0.0 2.0 60 85
- 0.460563 0 1 tcp 592 ------- 1 0.0 2.0 60 85
+ 0.460563 0 1 tcp 592 ------- 1 0.0 2.0 61 86
+ 0.460563 0 1 tcp 592 ------- 1 0.0 2.0 62 87
- 0.461037 0 1 tcp 592 ------- 1 0.0 2.0 61 86
- 0.46151 0 1 tcp 592 ------- 1 0.0 2.0 62 87
r 0.461565 0 1 tcp 592 ------- 1 0.0 2.0 54 77
+ 0.461565 1 2 tcp 592 ------- 1 0.0 2.0 54 77
- 0.461565 1 2 tcp 592 ------- 1 0.0 2.0 54 77
r 0.461683 1 2 tcp 592 ------- 1 0.0 2.0 49 67
r 0.462038 0 1 tcp 592 ------- 1 0.0 2.0 55 78
+ 0.462038 1 2 tcp 592 ------- 1 0.0 2.0 55 78
r 0.462512 0 1 tcp 592 ------- 1 0.0 2.0 56 79
+ 0.462512 1 2 tcp 592 ------- 1 0.0 2.0 56 79
- 0.463933 1 2 tcp 592 ------- 1 0.0 2.0 55 78
r 0.464051 1 2 tcp 592 ------- 1 0.0 2.0 50 68
+ 0.464051 2 1 ack 40 ------- 1 2.0 0.0 50 88
- 0.464051 2 1 ack 40 ------- 1 2.0 0.0 50 88
r 0.464739 2 1 ack 40 ------- 1 2.0 0.0 46 80
+ 0.464739 1 0 ack 40 ------- 1 2.0 0.0 46 80
- 0.464739 1 0 ack 40 ------- 1 2.0 0.0 46 80
r 0.465299 1 0 ack 40 ------- 1 2.0 0.0 42 75
+ 0.465299 0 1 tcp 592 ------- 1 0.0 2.0 63 89
- 0.465299 0 1 tcp 592 ------- 1 0.0 2.0 63 89
+ 0.465299 0 1 tcp 592 ------- 1 0.0 2.0 64 90
+ 0.465299 0 1 tcp 592 ------- 1 0.0 2.0 65 91
- 0.465773 0 1 tcp 592 ------- 1 0.0 2.0 64 90
- 0.466246 0 1 tcp 592 ------- 1 0.0 2.0 65 91
r 0.466301 0 1 tcp 592 ------- 1 0.0 2.0 57 81
+ 0.466301 1 2 tcp 592 ------- 1 0.0 2.0 57 81
- 0.466301 1 2 tcp 592 ------- 1 0.0 2.0 56 79
r 0.466419 1 2 tcp 592 ------- 1 0.0 2.0 51 70
r 0.466774 0 1 tcp 592 ------- 1 0.0 2.0 58 82
+ 0.466774 1 2 tcp 592 ------- 1 0.0 2.0 58 82
r 0.467248 0 1 tcp 592 ------- 1 0.0 2.0 59 83
+ 0.467248 1 2 tcp 592 ------- 1 0.0 2.0 59 83
- 0.468669 1 2 tcp 592 ------- 1 0.0 2.0 57 81
r 0.468787 1 2 tcp 592 ------- 1 0.0 2.0 52 71
+ 0.468787 2 1 ack 40 ------- 1 2.0 0.0 52 92
- 0.468787 2 1 ack 40 ------- 1 2.0 0.0 52 92
r 0.469475 2 1 ack 40 ------- 1 2.0 0.0 48 84
+ 0.469475 1 0 ack 40 ------- 1 2.0 0.0 48 84
- 0.469475 1 0 ack 40 ------- 1 2.0 0.0 48 84
r 0.470035 1 0 ack 40 ------- 1 2.0 0.0 44 76
+ 0.470035 0 1 tcp 592 ------- 1 0.0 2.0 66 93
- 0.470035 0 1 tcp 592 ------- 1 0.0 2.0 66 93
+ 0.470035 0 1 tcp 592 ------- 1 0.0 2.0 67 94
+ 0.470035 0 1 tcp 592 ------- 1 0.0 2.0 68 95
- 0.470509 0 1 tcp 592 ------- 1 0.0 2.0 67 94
- 0.470982 0 1 tcp 592 ------- 1 0.0 2.0 68 95
r 0.471037 0 1 tcp 592 ------- 1 0.0 2.0 60 85
+ 0.471037 1 2 tcp 592 ------- 1 0.0 2.0 60 85
- 0.471037 1 2 tcp 592 ------- 1 0.0 2.0 58 82
r 0.471155 1 2 tcp 592 ------- 1 0.0 2.0 53 72
r 0.47151 0 1 tcp 592 ------- 1 0.0 2.0 61 86
+ 0.47151 1 2 tcp 592 ------- 1 0.0 2.0 61 86
r 0.471984 0 1 tcp 592 ------- 1 0.0 2.0 62 87
+ 0.471984 1 2 tcp 592 ------- 1 0.0 2.0 62 87
- 0.473405 1 2 tcp 592 ------- 1 0.0 2.0 59 83
r 0.473933 1 2 tcp 592 ------- 1 0.0 2.0 54 77
+ 0.473933 2 1 ack 40 ------- 1 2.0 0.0 54 96
- 0.473933 2 1 ack 40 ------- 1 2.0 0.0 54 96
r 0.474211 2 1 ack 40 ------- 1 2.0 0.0 50 88
+ 0.474211 1 0 ack 40 ------- 1 2.0 0.0 50 88
- 0.474211 1 0 ack 40 ------- 1 2.0 0.0 50 88
r 0.474771 1 0 ack 40 ------- 1 2.0 0.0 46 80
+ 0.474771 0 1 tcp 592 ------- 1 0.0 2.0 69 97
- 0.474771 0 1 tcp 592 ------- 1 0.0 2.0 69 97
+ 0.474771 0 1 tcp 592 ------- 1 0.0 2.0 70 98
+ 0.474771 0 1 tcp 592 ------- 1 0.0 2.0 71 99
- 0.475245 0 1 tcp 592 ------- 1 0.0 2.0 70 98
- 0.475718 0 1 tcp 592 ------- 1 0.0 2.0 71 99
r 0.475773 0 1 tcp 592 ------- 1 0.0 2.0 63 89
+ 0.475773 1 2 tcp 592 ------- 1 0.0 2.0 63 89
- 0.475773 1 2 tcp 592 ------- 1 0.0 2.0 60 85
r 0.476246 0 1 tcp 592 ------- 1 0.0 2.0 64 90
+ 0.476246 1 2 tcp 592 ------- 1 0.0 2.0 64 90
r 0.476301 1 2 tcp 592 ------- 1 0.0 2.0 55 78
r 0.47672 0 1 tcp 592 ------- 1 0.0 2.0 65 91
+ 0.47672 1 2 tcp 592 ------- 1 0.0 2.0 65 91
- 0.478141 1 2 tcp 592 ------- 1 0.0 2.0 61 86
r 0.478669 1 2 tcp 592 ------- 1 0.0 2.0 56 79
+ 0.478669 2 1 ack 40 ------- 1 2.0 0.0 56 100
- 0.478669 2 1 ack 40 ------- 1 2.0 0.0 56 100
r 0.478947 2 1 ack 40 ------- 1 2.0 0.0 52 92
+ 0.478947 1 0 ack 40 ------- 1 2.0 0.0 52 92
- 0.478947 1 0 ack 40 ------- 1 2.0 0.0 52 92
r 0.479507 1 0 ack 40 ------- 1 2.0 0.0 48 84
+ 0.479507 0 1 tcp 592 ------- 1 0.0 2.0 72 101
- 0.479507 0 1 tcp 592 ------- 1 0.0 2.0 72 101
+ 0.479507 0 1 tcp 592 ------- 1 0.0 2.0 73 102
+ 0.479507 0 1 tcp 592 ------- 1 0.0 2.0 74 103
- 0.479981 0 1 tcp 592 ------- 1 0.0 2.0 73 102
- 0.480454 0 1 tcp 592 ------- 1 0.0 2.0 74 103
r 0.480509 0 1 tcp 592 ------- 1 0.0 2.0 66 93
+ 0.480509 1 2 tcp 592 ------- 1 0.0 2.0 66 93
- 0.480509 1 2 tcp 592 ------- 1 0.0 2.0 62 87
r 0.480982 0 1 tcp 592 ------- 1 0.0 2.0 67 94
+ 0.480982 1 2 tcp 592 ------- 1 0.0 2.0 67 94
r 0.481037 1 2 tcp 592 ------- 1 0.0 2.0 57 81
r 0.481456 0 1 tcp 592 ------- 1 0.0 2.0 68 95
+ 0.481456 1 2 tcp 592 ------- 1 0.0 2.0 68 95
- 0.482877 1 2 tcp 592 ------- 1 0.0 2.0 63 89
r 0.483405 1 2 tcp 592 ------- 1 0.0 2.0 58 82
+ 0.483405 2 1 ack 40 ------- 1 2.0 0.0 58 104
- 0.483405 2 1 ack 40 ------- 1 2.0 0.0 58 104
r 0.484093 2 1 ack 40 ------- 1 2.0 0.0 54 96
+ 0.484093 1 0 ack 40 ------- 1 2.0 0.0 54 96
- 0.484093 1 0 ack 40 ------- 1 2.0 0.0 54 96
r 0.484243 1 0 ack 40 ------- 1 2.0 0.0 50 88
+ 0.484243 0 1 tcp 592 ------- 1 0.0 2.0 75 105
- 0.484243 0 1 tcp 592 ------- 1 0.0 2.0 75 105
+ 0.484243 0 1 tcp 592 ------- 1 0.0 2.0 76 106
+ 0.484243 0 1 tcp 592 ------- 1 0.0 2.0 77 107
- 0.484717 0 1 tcp 592 ------- 1 0.0 2.0 76 106
- 0.48519 0 1 tcp 592 ------- 1 0.0 2.0 77 107
r 0.485245 0 1 tcp 592 ------- 1 0.0 2.0 69 97
+ 0.485245 1 2 tcp 592 ------- 1 0.0 2.0 69 97
- 0.485245 1 2 tcp 592 ------- 1 0.0 2.0 64 90
r 0.485718 0 1 tcp 592 ------- 1 0.0 2.0 70 98
+ 0.485718 1 2 tcp 592 ------- 1 0.0 2.0 70 98
r 0.485773 1 2 tcp 592 ------- 1 0.0 2.0 59 83
r 0.486192 0 1 tcp 592 ------- 1 0.0 2.0 71 99
+ 0.486192 1 2 tcp 592 ------- 1 0.0 2.0 71 99
- 0.487613 1 2 tcp 592 ------- 1 0.0 2.0 65 91
r 0.488141 1 2 tcp 592 ------- 1 0.0 2.0 60 85
+ 0.488141 2 1 ack 40 ------- 1 2.0 0.0 60 108
- 0.488141 2 1 ack 40 ------- 1 2.0 0.0 60 108
r 0.488829 2 1 ack 40 ------- 1 2.0 0.0 56 100
+ 0.488829 1 0 ack 40 ------- 1 2.0 0.0 56 100
- 0.488829 1 0 ack 40 ------- 1 2.0 0.0 56 100
r 0.488979 1 0 ack 40 ------- 1 2.0 0.0 52 92
+ 0.488979 0 1 tcp 592 ------- 1 0.0 2.0 78 109
- 0.488979 0 1 tcp 592 ------- 1 0.0 2.0 78 109
+ 0.488979 0 1 tcp 592 ------- 1 0.0 2.0 79 110
+ 0.488979 0 1 tcp 592 ------- 1 0.0 2.0 80 111
- 0.489453 0 1 tcp 592 ------- 1 0.0 2.0 79 110
- 0.489926 0 1 tcp 592 ------- 1 0.0 2.0 80 111
r 0.489981 0 1 tcp 592 ------- 1 0.0 2.0 72 101
+ 0.489981 1 2 tcp 592 ------- 1 0.0 2.0 72 101
- 0.489981 1 2 tcp 592 ------- 1 0.0 2.0 66 93
r 0.490454 0 1 tcp 592 ------- 1 0.0 2.0 73 102
+ 0.490454 1 2 tcp 592 ------- 1 0.0 2.0 73 102
r 0.490509 1 2 tcp 592 ------- 1 0.0 2.0 61 86
r 0.490928 0 1 tcp 592 ------- 1 0.0 2.0 74 103
+ 0.490928 1 2 tcp 592 ------- 1 0.0 2.0 74 103
- 0.492349 1 2 tcp 592 ------- 1 0.0 2.0 67 94
r 0.492877 1 2 tcp 592 ------- 1 0.0 2.0 62 87
+ 0.492877 2 1 ack 40 ------- 1 2.0 0.0 62 112
- 0.492877 2 1 ack 40 ------- 1 2.0 0.0 62 112
r 0.493565 2 1 ack 40 ------- 1 2.0 0.0 58 104
+ 0.493565 1 0 ack 40 ------- 1 2.0 0.0 58 104
- 0.493565 1 0 ack 40 ------- 1 2.0 0.0 58 104
r 0.494125 1 0 ack 40 ------- 1 2.0 0.0 54 96
+ 0.494125 0 1 tcp 592 ------- 1 0.0 2.0 81 113
- 0.494125 0 1 tcp 592 ------- 1 0.0 2.0 81 113
+ 0.494125 0 1 tcp 592 ------- 1 0.0 2.0 82 114
+ 0.494125 0 1 tcp 592 ------- 1 0.0 2.0 83 115
- 0.494598 0 1 tcp 592 ------- 1 0.0 2.0 82 114
r 0.494717 0 1 tcp 592 ------- 1 0.0 2.0 75 105
+ 0.494717 1 2 tcp 592 ------- 1 0.0 2.0 75 105
- 0.494717 1 2 tcp 592 ------- 1 0.0 2.0 68 95
- 0.495072 0 1 tcp 592 ------- 1 0.0 2.0 83 115
r 0.49519 0 1 tcp 592 ------- 1 0.0 2.0 76 106
+ 0.49519 1 2 tcp 592 ------- 1 0.0 2.0 76 106
r 0.495245 1 2 tcp 592 ------- 1 0.0 2.0 63 89
r 0.495664 0 1 tcp 592 ------- 1 0.0 2.0 77 107
+ 0.495664 1 2 tcp 592 ------- 1 0.0 2.0 77 107
- 0.497085 1 2 tcp 592 ------- 1 0.0 2.0 69 97
r 0.497613 1 2 tcp 592 ------- 1 0.0 2.0 64 90
+ 0.497613 2 1 ack 40 ------- 1 2.0 0.0 64 116
- 0.497613 2 1 ack 40 ------- 1 2.0 0.0 64 116
r 0.498301 2 1 ack 40 ------- 1 2.0 0.0 60 108
+ 0.498301 1 0 ack 40 ------- 1 2.0 0.0 60 108